Title: D charakterystyka w przewodzeniu
Date: Sat Apr 07 18:59:54 2018
Plotname: DC transfer characteristic
Flags: real forward
No. Variables: 2
No. Points:           60
Offset:   0.0000000000000000e+000
Command: Linear Technology Corporation LTspice IV
Variables:
	0	v1	voltage
	1	I(D1)	device_current
Values:
0		8.000000000000000e-001
	3.973963713449914e-006
1		8.050000000000001e-001
	4.555685365966521e-006
2		8.100000000000001e-001
	5.222561329796730e-006
3		8.150000000000001e-001
	5.987056770653847e-006
4		8.200000000000001e-001
	6.863461545847594e-006
5		8.250000000000001e-001
	7.868157308589074e-006
6		8.300000000000001e-001
	9.019923711894520e-006
7		8.350000000000001e-001
	1.034028943561468e-005
8		8.400000000000001e-001
	1.185393459794562e-005
9		8.450000000000001e-001
	1.358915207324771e-005
10		8.500000000000001e-001
	1.557837633907192e-005
11		8.550000000000001e-001
	1.785878973753702e-005
12		8.600000000000001e-001
	2.047301748322447e-005
13		8.650000000000001e-001
	2.346992440859430e-005
14		8.700000000000001e-001
	2.690552833959302e-005
15		8.750000000000001e-001
	3.084404717416055e-005
16		8.800000000000001e-001
	3.535909923550295e-005
17		8.850000000000001e-001
	4.053507933699017e-005
18		8.900000000000001e-001
	4.646873627992009e-005
19		8.950000000000001e-001
	5.327098127054877e-005
20		9.000000000000001e-001
	6.106896105910107e-005
21		9.050000000000001e-001
	7.000843455162785e-005
22		9.100000000000001e-001
	8.025649731805578e-005
23		9.150000000000002e-001
	9.200470492260957e-005
24		9.200000000000002e-001
	1.054726534575209e-004
25		9.250000000000002e-001
	1.209120842069369e-004
26		9.300000000000002e-001
	1.386115891649164e-004
27		9.350000000000002e-001
	1.589020053624837e-004
28		9.400000000000002e-001
	1.821625988338736e-004
29		9.450000000000002e-001
	2.088281538119088e-004
30		9.500000000000002e-001
	2.393970996629113e-004
31		9.550000000000002e-001
	2.744408274688434e-004
32		9.600000000000002e-001
	3.146143704011138e-004
33		9.650000000000002e-001
	3.606686475223289e-004
34		9.700000000000002e-001
	4.134644998756484e-004
35		9.750000000000002e-001
	4.739887812226784e-004
36		9.800000000000002e-001
	5.433728041960208e-004
37		9.850000000000002e-001
	6.229134866597916e-004
38		9.900000000000002e-001
	7.140975935433086e-004
39		9.950000000000002e-001
	8.186295272734553e-004
40		1.000000000000000e+000
	9.384631862611112e-004
41		1.005000000000000e+000
	1.075838486936705e-003
42		1.010000000000000e+000
	1.233323232000427e-003
43		1.015000000000000e+000
	1.413861107483351e-003
44		1.020000000000000e+000
	1.620826705774896e-003
45		1.025000000000000e+000
	1.858088603100411e-003
46		1.030000000000000e+000
	2.130081670485590e-003
47		1.035000000000000e+000
	2.441889969835590e-003
48		1.039999999999999e+000
	2.799341784612511e-003
49		1.044999999999999e+000
	3.209118561413163e-003
50		1.049999999999999e+000
	3.678879798770351e-003
51		1.054999999999999e+000
	4.217406217583888e-003
52		1.059999999999999e+000
	4.834763889306037e-003
53		1.064999999999999e+000
	5.542492389746162e-003
54		1.069999999999999e+000
	6.353820495442225e-003
55		1.074999999999999e+000
	7.283913454370822e-003
56		1.079999999999999e+000
	8.350156452949648e-003
57		1.084999999999998e+000
	9.572479577863946e-003
58		1.089999999999998e+000
	1.097373034686489e-002
59		1.091000000000000e+000
	1.127769256620798e-002
